/*--------------------------------*- C++ -*----------------------------------*\
  =========                 |
  \\      /  F ield         | OpenFOAM: The Open Source CFD Toolbox
   \\    /   O peration     | Website:  https://openfoam.org
    \\  /    A nd           | Version:  10
     \\/     M anipulation  |
\*---------------------------------------------------------------------------*/
FoamFile
{
    format      ascii;
    class       volScalarField;
    location    "0";
    object      yPlus;
}
// * * * * * * * * * * * * * * * * * * * * * * * * * * * * * * * * * * * * * //

dimensions      [0 0 0 0 0 0 0];

internalField   uniform 0;

boundaryField
{
    BLADE
    {
        type            calculated;
        value           nonuniform List<scalar> 
12067
(
4.26131
4.25225
4.25378
4.26131
4.25225
4.25378
4.26131
4.25224
4.25377
4.26131
4.25223
4.25376
4.26132
4.25222
4.25375
4.26133
4.25221
4.25375
4.26133
4.25219
4.25373
4.26134
4.25217
4.25371
4.26135
4.25214
4.25368
4.26138
4.25209
4.25364
4.2614
4.25203
4.25359
4.26143
4.25197
4.25353
4.26147
4.2519
4.25345
4.26152
4.2518
4.25335
4.2616
4.25168
4.25324
4.26171
4.25152
4.2531
4.26186
4.25133
4.25294
4.26206
4.25109
4.25275
4.26235
4.25083
4.25255
4.26279
4.25055
4.25237
4.26342
4.25027
4.25228
4.26432
4.25007
4.2524
4.26545
4.25009
4.25287
4.26662
4.25008
4.25328
4.26768
4.24974
4.2533
4.26878
4.24938
4.25349
4.27008
4.24945
4.25448
4.27127
4.24967
4.25553
4.27208
4.24957
4.25566
4.27275
4.24928
4.25528
4.27403
4.25045
4.25281
4.27586
4.25447
4.25014
4.27759
4.25897
4.2491
4.27897
4.26117
4.24855
4.27999
4.262
4.24815
4.2808
4.26297
4.24972
4.28135
4.2644
4.25459
4.28134
4.26513
4.25794
4.28109
4.26469
4.25848
4.28097
4.26437
4.25861
4.28093
4.26426
4.25881
4.28092
4.26422
4.25897
4.28093
4.26421
4.2591
4.28094
4.26421
4.25919
4.28095
4.26421
4.25925
4.28095
4.2642
4.25927
4.28095
4.26421
4.2593
4.28095
4.2642
4.25931
4.28095
4.2642
4.25933
4.28095
4.26421
4.25935
4.28096
4.26421
4.25936
4.28096
4.26422
4.25938
4.28097
4.26421
4.25939
4.28097
4.26422
4.25941
4.28097
4.26422
4.25942
4.28097
4.26422
4.25943
4.28097
4.26422
4.25945
4.28097
4.26422
4.25946
4.28097
4.26422
4.25945
4.28097
4.26422
4.25946
4.28097
4.26423
4.25948
4.28096
4.26423
4.25949
4.28096
4.26423
4.25949
4.28097
4.26423
4.25949
4.28097
4.26423
4.25949
4.28097
4.26422
4.25948
4.28098
4.26423
4.25949
4.28098
4.26423
4.2595
4.28098
4.26423
4.25951
4.28098
4.26423
4.25951
4.28098
4.26423
4.25951
4.28098
4.26423
4.25951
4.25544
4.25489
4.25802
4.26235
4.25544
4.25488
4.25801
4.26234
4.25543
4.25488
4.25801
4.26234
4.25542
4.25488
4.258
4.26233
4.25541
4.25486
4.25799
4.26233
4.2554
4.25485
4.25798
4.26232
4.25539
4.25484
4.25797
4.2623
4.25537
4.25482
4.25795
4.26229
4.25534
4.2548
4.25793
4.26227
4.2553
4.25476
4.25789
4.26224
4.25525
4.25472
4.25785
4.26221
4.25518
4.25466
4.2578
4.26216
4.25511
4.25459
4.25774
4.2621
4.255
4.25451
4.25765
4.26203
4.25488
4.2544
4.25755
4.26194
4.25474
4.25427
4.25742
4.26184
4.25456
4.25411
4.25727
4.26171
4.25436
4.25393
4.2571
4.26156
4.25414
4.25375
4.25691
4.26141
4.25393
4.25358
4.25675
4.26127
4.25379
4.25349
4.25665
4.26122
4.25384
4.25357
4.25672
4.26133
4.25422
4.25397
4.25709
4.26172
4.25439
4.254
4.25675
4.26131
4.25405
4.25327
4.25498
4.25913
4.2541
4.25323
4.25377
4.25696
4.25542
4.25513
4.2548
4.25642
4.25692
4.25788
4.25741
4.25748
4.25709
4.2585
4.25811
4.25775
4.25653
4.25804
4.25779
4.25754
4.25527
4.25702
4.25698
4.25688
4.25455
4.2565
4.25653
4.25644
4.25464
4.25681
4.25691
4.25685
4.25445
4.25684
4.25696
4.2569
4.25363
4.2564
4.25639
4.25629
4.25047
4.25557
4.25561
4.25552
4.24731
4.25531
4.25548
4.2554
4.24672
4.25587
4.25627
4.25623
4.24687
4.25628
4.25678
4.25679
4.2472
4.25664
4.25713
4.25711
4.24751
4.25693
4.25738
4.25733
4.24773
4.25713
4.25755
4.25747
4.2479
4.25728
4.25767
4.25756
4.24802
4.25737
4.25775
4.25762
4.24809
4.25744
4.2578
4.25766
4.24814
4.25748
4.25784
4.25769
4.24818
4.25751
4.25786
4.25771
4.2482
4.25753
4.25788
4.25772
4.24822
4.25756
4.25789
4.25773
4.24824
4.25757
4.25791
4.25774
4.24827
4.25759
4.25792
4.25775
4.24828
4.25761
4.25793
4.25776
4.2483
4.25762
4.25795
4.25777
4.24831
4.25763
4.25795
4.25778
4.24833
4.25764
4.25796
4.25779
4.24835
4.25765
4.25797
4.25779
4.24836
4.25766
4.25797
4.2578
4.24838
4.25767
4.25798
4.25781
4.24838
4.25768
4.25799
4.25781
4.24839
4.25769
4.258
4.25781
4.2484
4.2577
4.258
4.25782
4.24841
4.25771
4.25801
4.25782
4.24842
4.25771
4.25801
4.25783
4.24842
4.25771
4.25801
4.25783
4.24842
4.25772
4.25802
4.25783
4.24843
4.25772
4.25802
4.25783
4.24843
4.25773
4.25803
4.25784
4.24844
4.25774
4.25803
4.25784
4.24844
4.25774
4.25803
4.25784
4.24845
4.25774
4.25804
4.25784
4.24845
4.25774
4.25804
4.25784
4.24845
4.25775
4.25804
4.25785
4.26128
4.26053
4.2766
4.28246
4.28225
4.28169
4.26128
4.26052
4.2766
4.28247
4.28225
4.28169
4.26127
4.26052
4.2766
4.28247
4.28225
4.2817
4.26127
4.26052
4.27659
4.28247
4.28225
4.2817
4.26127
4.26051
4.27659
4.28247
4.28226
4.28171
4.26126
4.2605
4.27658
4.28247
4.28226
4.28171
4.26125
4.26049
4.27656
4.28247
4.28226
4.28172
4.26124
4.26048
4.27656
4.28248
4.28227
4.28172
4.26123
4.26046
4.27654
4.28249
4.28227
4.28173
4.26121
4.26044
4.27651
4.28249
4.28227
4.28175
4.26119
4.26041
4.27648
4.2825
4.28228
4.28176
4.26116
4.26037
4.27645
4.28252
4.28229
4.28178
4.26113
4.26033
4.2764
4.28253
4.28229
4.28181
4.26108
4.26027
4.27633
4.28254
4.28231
4.28184
4.26103
4.26019
4.27623
4.28257
4.28232
4.28188
4.26097
4.2601
4.27611
4.2826
4.28235
4.28193
4.26091
4.25999
4.27595
4.28263
4.28237
4.28199
4.26083
4.25986
4.27573
4.28267
4.2824
4.28207
4.26078
4.25972
4.27543
4.2827
4.28242
4.28216
4.26078
4.25958
4.27501
4.28273
4.28242
4.28224
4.26088
4.25948
4.27445
4.28275
4.2824
4.28229
4.26118
4.25949
4.27366
4.28272
4.28231
4.28227
4.26176
4.25966
4.27274
4.28264
4.28216
4.28214
4.26173
4.25952
4.27182
4.28246
4.28186
4.28175
4.26023
4.2584
4.27093
4.2822
4.28146
4.28118
4.25808
4.25661
4.26998
4.28199
4.28128
4.28094
4.25649
4.25464
4.26888
4.28198
4.28162
4.28149
4.25583
4.25314
4.26801
4.28206
4.28211
4.28239
4.25551
4.25265
4.26775
4.28206
4.28226
4.2827
4.25535
4.25267
4.26787
4.28211
4.28231
4.28275
4.25489
4.2522
4.2669
4.28233
4.28269
4.28306
4.25476
4.25166
4.26465
4.28224
4.28297
4.28325
4.25548
4.25194
4.26282
4.28164
4.28276
4.283
4.25583
4.25217
4.26181
4.28118
4.28249
4.28282
4.25545
4.25199
4.26111
4.28112
4.28261
4.28291
4.25485
4.25162
4.25968
4.28091
4.28293
4.28318
4.25485
4.25182
4.25791
4.28009
4.28296
4.28321
4.25566
4.25256
4.25688
4.27921
4.28284
4.28309
4.25611
4.25278
4.25639
4.27884
4.28289
4.28314
4.25634
4.25284
4.25609
4.27863
4.28292
4.28316
4.25648
4.25288
4.2559
4.27847
4.28291
4.28314
4.25658
4.2529
4.25578
4.27837
4.28289
4.28311
4.25664
4.25292
4.2557
4.2783
4.28288
4.28309
4.25668
4.25293
4.25565
4.27826
4.28287
4.28308
4.25671
4.25294
4.25562
4.27823
4.28286
4.28306
4.25672
4.25294
4.25559
4.2782
4.28286
4.28305
4.25673
4.25294
4.25557
4.27818
4.28285
4.28305
4.25674
4.25295
4.25556
4.27817
4.28285
4.28305
4.25675
4.25295
4.25555
4.27816
4.28284
4.28304
4.25676
4.25295
4.25554
4.27815
4.28284
4.28304
4.25676
4.25295
4.25553
4.27813
4.28284
4.28304
4.25677
4.25296
4.25553
4.27813
4.28284
4.28303
4.25677
4.25296
4.25553
4.27813
4.28283
4.28303
4.25678
4.25296
4.25551
4.27812
4.28283
4.28302
4.25679
4.25296
4.2555
4.27811
4.28283
4.28302
4.25679
4.25296
4.2555
4.2781
4.28283
4.28302
4.25679
4.25296
4.2555
4.2781
4.28283
4.28303
4.25679
4.25296
4.25549
4.27809
4.28282
4.28302
4.2568
4.25296
4.25549
4.27809
4.28282
4.28302
4.2568
4.25296
4.25548
4.27809
4.28282
4.28302
4.2568
4.25296
4.25548
4.27808
4.28282
4.28302
4.25681
4.25297
4.25548
4.27809
4.28282
4.28302
4.25681
4.25297
4.25548
4.27809
4.28282
4.28301
4.25681
4.25296
4.25548
4.27808
4.28282
4.28301
4.25681
4.25296
4.25547
4.27808
4.28281
4.28301
4.25681
4.25297
4.25547
4.27807
4.28281
4.283
4.25682
4.25297
4.25547
4.27807
4.28281
4.28301
4.25682
4.25297
4.25546
4.27807
4.28282
4.28301
4.25682
4.25297
4.25547
4.27807
4.28281
4.28301
4.25682
4.25297
4.25546
4.27806
4.28281
4.28301
4.25682
4.25297
4.25546
4.27806
4.28281
4.28301
4.25682
4.25297
4.25546
4.27806
4.28281
4.283
4.28151
4.28216
4.28257
4.2826
4.28254
4.2827
4.28269
4.28272
4.28268
4.28246
4.28235
4.28151
4.28216
4.28256
4.28261
4.28254
4.2827
4.2827
4.28273
4.28268
4.28246
4.28235
4.28151
4.28217
4.28256
4.2826
4.28254
4.2827
4.2827
4.28272
4.28268
4.28246
4.28235
4.28151
4.28217
4.28257
4.28261
4.28254
4.2827
4.2827
4.28272
4.28268
4.28246
4.28235
4.28152
4.28217
4.28257
4.28261
4.28254
4.2827
4.2827
4.28272
4.28268
4.28247
4.28236
4.28152
4.28217
4.28257
4.28261
4.28254
4.28271
4.2827
4.28272
4.28268
4.28246
4.28236
4.28152
4.28217
4.28257
4.2826
4.28254
4.28271
4.28271
4.28273
4.28269
4.28247
4.28237
4.28152
4.28217
4.28258
4.28261
4.28254
4.28271
4.28271
4.28274
4.28269
4.28248
4.28238
4.28152
4.28218
4.28258
4.28262
4.28255
4.28272
4.28272
4.28274
4.2827
4.28249
4.28239
4.28153
4.28219
4.28258
4.28262
4.28256
4.28272
4.28272
4.28275
4.28271
4.2825
4.2824
4.28153
4.28219
4.28259
4.28263
4.28257
4.28273
4.28272
4.28276
4.28272
4.28251
4.28241
4.28153
4.28219
4.28259
4.28264
4.28258
4.28274
4.28273
4.28276
4.28273
4.28253
4.28242
4.28154
4.2822
4.28261
4.28265
4.28259
4.28275
4.28275
4.28279
4.28275
4.28255
4.28245
4.28155
4.28222
4.28262
4.28266
4.2826
4.28277
4.28277
4.28281
4.28278
4.28258
4.28248
4.28157
4.28223
4.28263
4.28268
4.28262
4.2828
4.2828
4.28283
4.2828
4.28261
4.28251
4.28157
4.28224
4.28265
4.2827
4.28264
4.28282
4.28283
4.28287
4.28284
4.28264
4.28255
4.28159
4.28226
4.28267
4.28272
4.28267
4.28285
4.28286
4.28291
4.28288
4.28269
4.2826
4.28161
4.28229
4.2827
4.28275
4.2827
4.28288
4.28289
4.28295
4.28292
4.28274
4.28265
4.28162
4.28231
4.28273
4.28278
4.28273
4.28293
4.28294
4.28299
4.28297
4.28279
4.2827
4.28162
4.28233
4.28276
4.28281
4.28276
4.28297
4.28298
4.28304
4.28301
4.28285
4.28276
4.28161
4.28234
4.28277
4.28282
4.28278
4.28299
4.283
4.28306
4.28303
4.28287
4.28278
4.28158
4.28231
4.28276
4.28281
4.28277
4.28298
4.28298
4.28304
4.283
4.28284
4.28274
4.28151
4.28226
4.28272
4.28277
4.28272
4.28294
4.28291
4.28295
4.2829
4.28272
4.28261
4.28147
4.28221
4.28267
4.28272
4.28267
4.28291
4.28287
4.2829
4.28283
4.28268
4.28258
4.28156
4.28224
4.28267
4.28272
4.28269
4.28296
4.28297
4.283
4.28295
4.28288
4.28288
4.2818
4.28236
4.28272
4.28276
4.28273
4.28302
4.28306
4.28311
4.28305
4.28308
4.28318
4.28212
4.28253
4.28278
4.2828
4.28273
4.28299
4.28301
4.28304
4.28294
4.28301
4.28317
4.28242
4.2827
4.28287
4.28286
4.28277
4.28298
4.28299
4.28302
4.28288
4.28298
4.28317
4.28252
4.28275
4.28293
4.28292
4.28287
4.28306
4.28308
4.28313
4.28302
4.28315
4.28338
4.28247
4.28263
4.28284
4.28284
4.28287
4.28303
4.28302
4.28306
4.28293
4.28302
4.28323
4.28249
4.28258
4.2828
4.28283
4.28293
4.28307
4.28305
4.28306
4.28294
4.28302
4.2832
4.28258
4.28265
4.28284
4.28288
4.28305
4.28317
4.28316
4.28316
4.28308
4.28321
4.28338
4.28258
4.28267
4.28279
4.28283
4.28306
4.28317
4.28315
4.28314
4.28307
4.28321
4.28337
4.28253
4.28274
4.28285
4.28285
4.28311
4.28322
4.28321
4.28326
4.28321
4.28334
4.2835
4.28238
4.28277
4.28296
4.28287
4.28311
4.2832
4.28317
4.28325
4.28318
4.28324
4.28341
4.28238
4.28281
4.28305
4.28291
4.28315
4.28324
4.28321
4.28326
4.28319
4.28324
4.28343
4.28257
4.28286
4.2831
4.28294
4.28317
4.28327
4.28326
4.28329
4.2832
4.28326
4.28347
4.28256
4.28271
4.2829
4.28276
4.28302
4.28317
4.28324
4.28334
4.28332
4.28342
4.28365
4.28248
4.28256
4.28271
4.28262
4.28291
4.28315
4.28331
4.28354
4.28364
4.28382
4.28408
4.28252
4.28259
4.28271
4.28264
4.2829
4.28316
4.28332
4.28358
4.28372
4.28391
4.28417
4.2826
4.28268
4.28279
4.28271
4.28294
4.28316
4.28329
4.28354
4.28366
4.28385
4.2841
4.28267
4.28276
4.28286
4.28278
4.28298
4.28318
4.28326
4.28349
4.2836
4.28377
4.28399
4.28273
4.28283
4.28291
4.28283
4.28301
4.28318
4.28324
4.28344
4.28353
4.28369
4.28391
4.28277
4.28287
4.28295
4.28287
4.28303
4.28318
4.28323
4.2834
4.28349
4.28364
4.28384
4.2828
4.2829
4.28299
4.2829
4.28305
4.28318
4.28321
4.28338
4.28345
4.28359
4.28379
4.28281
4.28292
4.283
4.28292
4.28307
4.28318
4.2832
4.28336
4.28343
4.28357
4.28376
4.28282
4.28293
4.28301
4.28293
4.28307
4.28319
4.28319
4.28335
4.28342
4.28356
4.28373
4.28283
4.28295
4.28303
4.28294
4.28308
4.28319
4.28318
4.28334
4.28341
4.28354
4.28372
4.28284
4.28296
4.28304
4.28295
4.28308
4.28317
4.28318
4.28333
4.2834
4.28353
4.2837
4.28285
4.28297
4.28304
4.28296
4.28309
4.28318
4.28318
4.28332
4.28338
4.28351
4.28368
4.28286
4.28298
4.28305
4.28296
4.28309
4.28319
4.28317
4.28331
4.28337
4.28349
4.28367
4.28287
4.28299
4.28306
4.28297
4.28309
4.28319
4.28317
4.28331
4.28336
4.28348
4.28365
4.28288
4.283
4.28307
4.28297
4.2831
4.28319
4.28317
4.28331
4.28336
4.28348
4.28365
4.28289
4.28301
4.28308
4.28299
4.28311
4.2832
4.28317
4.2833
4.28335
4.28347
4.28364
4.28289
4.28301
4.28309
4.283
4.2831
4.28319
4.28317
4.2833
4.28334
4.28346
4.28362
4.28289
4.28301
4.28308
4.283
4.2831
4.28319
4.28317
4.28329
4.28333
4.28344
4.28361
4.2829
4.28302
4.28309
4.28299
4.28311
4.28319
4.28316
4.28328
4.28332
4.28343
4.2836
4.28291
4.28303
4.2831
4.283
4.28311
4.28319
4.28316
4.28328
4.28333
4.28343
4.28359
4.2829
4.28303
4.2831
4.28301
4.28311
4.28318
4.28316
4.28328
4.28332
4.28343
4.28359
4.2829
4.28303
4.2831
4.28301
4.28311
4.28318
4.28315
4.28327
4.28331
4.28342
4.28358
4.28291
4.28304
4.28311
4.28301
4.28312
4.28319
4.28315
4.28327
4.2833
4.28341
4.28357
4.28291
4.28304
4.28311
4.28302
4.28312
4.2832
4.28316
4.28327
4.2833
4.28341
4.28357
4.28292
4.28305
4.28312
4.28302
4.28313
4.2832
4.28315
4.28327
4.2833
4.28341
4.28356
4.28293
4.28305
4.28312
4.28303
4.28313
4.28319
4.28315
4.28326
4.28329
4.28341
4.28356
4.28293
4.28305
4.28312
4.28303
4.28313
4.28319
4.28314
4.28326
4.2833
4.28341
4.28355
4.28293
4.28305
4.28312
4.28303
4.28312
4.28319
4.28315
4.28325
4.28329
4.2834
4.28354
4.28293
4.28305
4.28312
4.28303
4.28313
4.28319
4.28315
4.28325
4.28329
4.2834
4.28355
4.28294
4.28306
4.28313
4.28304
4.28314
4.28319
4.28314
4.28326
4.2833
4.28339
4.28355
4.28294
4.28306
4.28313
4.28303
4.28313
4.28319
4.28314
4.28325
4.28329
4.28339
4.28355
4.28293
4.28306
4.28313
4.28303
4.28313
4.28319
4.28314
4.28325
4.28328
4.28339
4.28354
4.28293
4.28306
4.28313
4.28302
4.28313
4.28319
4.28314
4.28325
4.28328
4.28338
4.28354
4.28293
4.28306
4.28313
4.28303
4.28313
4.28319
4.28315
4.28326
4.28328
4.28339
4.28354
4.28241
4.28242
4.28203
4.28212
4.28241
4.28241
4.28203
4.28212
4.28242
4.28241
4.28203
4.28212
4.28242
4.28241
4.28203
4.28212
4.28242
4.28242
4.28204
4.28213
4.28242
4.28243
4.28204
4.28214
4.28243
4.28244
4.28205
4.28215
4.28244
4.28244
4.28206
4.28217
4.28245
4.28246
4.28208
4.28218
4.28246
4.28248
4.2821
4.2822
4.28248
4.2825
4.28212
4.28223
4.28249
4.28253
4.28215
4.28227
4.28252
4.28257
4.2822
4.28232
4.28256
4.28262
4.28225
4.28238
4.2826
4.28267
4.28231
4.28245
4.28265
4.28275
4.28238
4.28254
4.2827
4.28283
4.28247
4.28264
4.28277
4.28293
4.28257
4.28277
4.28283
4.28304
4.28268
4.2829
4.2829
4.28314
4.28278
4.28301
4.28293
4.28321
4.28283
4.28306
4.28288
4.2832
4.28276
4.28299
4.28271
4.28302
4.28253
4.2827
4.28266
4.28293
4.28237
4.2825
4.28299
4.28318
4.28263
4.28275
4.28334
4.28347
4.28302
4.28319
4.28333
4.28343
4.28321
4.28339
4.28337
4.28352
4.28361
4.28383
4.28363
4.28387
4.28414
4.28448
4.28346
4.28364
4.28387
4.28418
4.28343
4.28358
4.2838
4.28405
4.28365
4.28388
4.2841
4.28447
4.28363
4.28389
4.28406
4.28446
4.28377
4.28409
4.2843
4.28472
4.28363
4.28393
4.2841
4.28452
4.28364
4.2839
4.28408
4.28443
4.28368
4.28398
4.28416
4.28458
4.28384
4.28405
4.28424
4.28458
4.28429
4.28454
4.28477
4.28517
4.28438
4.2846
4.28484
4.28523
4.28429
4.28447
4.28469
4.28506
4.28416
4.28432
4.28452
4.28485
4.28406
4.28418
4.28437
4.28469
4.28398
4.28408
4.28426
4.28458
4.28392
4.28402
4.28419
4.28449
4.28388
4.28398
4.28414
4.28443
4.28386
4.28395
4.28411
4.28439
4.28384
4.28393
4.28408
4.28435
4.28382
4.2839
4.28404
4.28432
4.2838
4.28387
4.28402
4.28429
4.28378
4.28385
4.284
4.28427
4.28377
4.28383
4.28398
4.28425
4.28376
4.28382
4.28397
4.28423
4.28375
4.28381
4.28395
4.2842
4.28373
4.28379
4.28393
4.28418
4.28372
4.28377
4.28391
4.28417
4.28371
4.28376
4.28389
4.28416
4.2837
4.28375
4.28389
4.28414
4.28369
4.28374
4.28388
4.28413
4.28368
4.28373
4.28387
4.28412
4.28368
4.28372
4.28385
4.2841
4.28367
4.28371
4.28384
4.2841
4.28366
4.28371
4.28384
4.28409
4.28366
4.2837
4.28383
4.28408
4.28365
4.28369
4.28382
4.28407
4.28364
4.28368
4.28381
4.28406
4.28364
4.28368
4.28381
4.28406
4.28365
4.28368
4.2838
4.28405
4.28364
4.28368
4.2838
4.28405
4.28364
4.28368
4.2838
4.28404
4.28363
4.28367
4.2838
4.28404
4.28363
4.28366
4.28379
4.28404
4.28287
4.28337
4.28361
4.28369
4.28376
4.28385
4.28288
4.28339
4.28361
4.28369
4.28376
4.28384
4.28288
4.2834
4.28362
4.2837
4.28377
4.28386
4.28288
4.2834
4.28363
4.2837
4.28377
4.28386
4.28289
4.2834
4.28363
4.28371
4.28378
4.28387
4.2829
4.28341
4.28364
4.28372
4.28379
4.28389
4.28291
4.28343
4.28366
4.28374
4.28381
4.28391
4.28293
4.28344
4.28368
4.28376
4.28383
4.28392
4.28294
4.28346
4.2837
4.28378
4.28385
4.28395
4.28297
4.28349
4.28374
4.28382
4.28389
4.28399
4.28301
4.28353
4.28378
4.28386
4.28394
4.28405
4.28305
4.28358
4.28382
4.28391
4.284
4.28411
4.2831
4.28364
4.28389
4.28398
4.28408
4.28418
4.28317
4.28372
4.28397
4.28407
4.28417
4.28428
4.28326
4.28381
4.28407
4.28418
4.28429
4.2844
4.28336
4.28392
4.28419
4.28431
4.28443
4.28456
4.28349
4.28405
4.28434
4.28447
4.2846
4.28473
4.28363
4.28421
4.2845
4.28464
4.2848
4.28494
4.28378
4.28437
4.28467
4.28483
4.285
4.28515
4.28391
4.28451
4.28483
4.28499
4.28518
4.28533
4.28399
4.28459
4.2849
4.28507
4.28527
4.28542
4.28392
4.2845
4.28479
4.28495
4.28514
4.28526
4.28361
4.28416
4.28441
4.28453
4.28469
4.28476
4.28339
4.28399
4.28427
4.28442
4.28462
4.28473
4.28365
4.28439
4.28483
4.28515
4.28549
4.2858
4.28405
4.28484
4.28539
4.28584
4.28629
4.28671
4.28401
4.28456
4.28499
4.28535
4.28569
4.28605
4.28419
4.28453
4.28481
4.28506
4.28528
4.28553
4.28482
4.28513
4.2854
4.28565
4.28591
4.28618
4.28445
4.28471
4.28492
4.28511
4.28535
4.28555
4.28428
4.2845
4.28472
4.28491
4.28508
4.28526
4.28474
4.28498
4.28524
4.28551
4.28569
4.28586
4.28471
4.28495
4.28518
4.28548
4.28566
4.28581
4.285
4.2853
4.28553
4.28585
4.28612
4.28631
4.28476
4.28498
4.2852
4.28546
4.28569
4.28584
4.28465
4.2849
4.28504
4.28528
4.28544
4.28558
4.28482
4.28501
4.28521
4.28545
4.28563
4.28575
4.28479
4.28497
4.28506
4.28525
4.28535
4.28549
4.28543
4.28561
4.28579
4.286
4.28613
4.2863
4.28551
4.2857
4.28588
4.2861
4.28625
4.28643
4.28532
4.28551
4.28566
4.28586
4.28599
4.28615
4.2851
4.28527
4.2854
4.28558
4.28568
4.28583
4.28492
4.28507
4.28518
4.28535
4.28543
4.28556
4.28479
4.28493
4.28501
4.28517
4.28524
4.28536
4.28469
4.28482
4.2849
4.28504
4.28511
4.28522
4.28463
4.28475
4.28483
4.28496
4.28503
4.28514
4.28459
4.28471
4.28478
4.28491
4.28497
4.28508
4.28455
4.28467
4.28473
4.28486
4.28492
4.28502
4.28452
4.28463
4.28469
4.28482
4.28487
4.28497
4.28448
4.2846
4.28466
4.28477
4.28483
4.28493
4.28446
4.28457
4.28462
4.28475
4.2848
4.28489
4.28443
4.28454
4.28459
4.28472
4.28476
4.28485
4.28441
4.28451
4.28457
4.28468
4.28472
4.28481
4.28438
4.28449
4.28454
4.28465
4.28469
4.28478
4.28436
4.28446
4.28452
4.28463
4.28466
4.28475
4.28435
4.28444
4.28449
4.2846
4.28464
4.28473
4.28434
4.28443
4.28446
4.28457
4.28461
4.2847
4.28432
4.28442
4.28445
4.28455
4.28459
4.28468
4.28431
4.2844
4.28444
4.28454
4.28458
4.28466
4.28429
4.28438
4.28442
4.28452
4.28456
4.28464
4.28427
4.28437
4.2844
4.28451
4.28454
4.28462
4.28426
4.28435
4.2844
4.2845
4.28453
4.2846
4.28426
4.28434
4.28438
4.28448
4.28451
4.28459
4.28425
4.28434
4.28436
4.28446
4.2845
4.28458
4.28424
4.28432
4.28436
4.28446
4.28449
4.28457
4.28423
4.28432
4.28436
4.28445
4.28448
4.28456
4.28423
4.28431
4.28435
4.28445
4.28447
4.28455
4.28422
4.2843
4.28433
4.28444
4.28446
4.28453
4.28422
4.2843
4.28433
4.28443
4.28445
4.28452
4.28421
4.2843
4.28432
4.28442
4.28444
4.28452
4.28421
4.28429
4.28432
4.28442
4.28444
4.28451
4.2842
4.28429
4.28431
4.28441
4.28443
4.28451
4.24118
4.23778
4.24425
4.26337
4.26465
4.24117
4.23776
4.24423
4.26336
4.26465
4.24116
4.23773
4.24421
4.26337
4.26466
4.24115
4.23769
4.24417
4.26337
4.26467
4.24114
4.23764
4.24413
4.26337
4.26469
4.24112
4.23757
4.24407
4.26337
4.26471
4.24109
4.23748
4.244
4.26337
4.26473
4.24106
4.23736
4.2439
4.26337
4.26476
4.24103
4.23721
4.24378
4.26337
4.2648
4.24098
4.23702
4.24362
4.26337
4.26484
4.24092
4.23677
4.24341
4.26337
4.26491
4.24085
4.23645
4.24314
4.26336
4.26499
4.24077
4.23604
4.24279
4.26335
4.26509
4.24067
4.23553
4.24234
4.26332
4.26523
4.24057
4.23488
4.24178
4.26328
4.26539
4.24048
4.23409
4.24106
4.26319
4.26558
4.24042
4.23313
4.24016
4.26303
4.26581
4.24047
4.2321
4.23908
4.26277
4.26607
4.24072
4.23104
4.2378
4.26231
4.26632
4.24138
4.23007
4.23649
4.26152
4.26654
4.2428
4.2295
4.23531
4.26021
4.26659
4.24557
4.22991
4.23474
4.25804
4.26629
4.24996
4.23206
4.23551
4.25514
4.26554
4.25428
4.23533
4.23736
4.2522
4.26471
4.25632
4.23745
4.23838
4.24985
4.26449
4.25696
4.23846
4.23857
4.24784
4.26447
4.25802
4.24004
4.23935
4.2458
4.26388
4.25873
4.24154
4.2401
4.24384
4.26301
4.25891
4.24265
4.24028
4.24204
4.26212
4.25974
4.24452
4.24096
4.24072
4.2605
4.25815
4.24386
4.2376
4.23734
4.25683
4.25766
4.24587
4.23274
4.23389
4.25059
4.26081
4.25313
4.23556
4.2358
4.2448
4.2632
4.25804
4.2404
4.23874
4.24099
4.26356
4.25916
4.24279
4.23974
4.23869
4.26356
4.25986
4.24565
4.23855
4.23706
4.26349
4.26015
4.24932
4.23488
4.23604
4.26397
4.26092
4.25271
4.23403
4.23587
4.26405
4.26132
4.25384
4.23485
4.236
4.26408
4.2616
4.25437
4.23568
4.23638
4.26415
4.26182
4.25477
4.23631
4.23677
4.26422
4.26199
4.25505
4.23677
4.23708
4.26426
4.26211
4.25524
4.23711
4.23735
4.2643
4.26219
4.25537
4.23733
4.23754
4.26432
4.26224
4.25546
4.23748
4.23768
4.26433
4.26227
4.25551
4.23758
4.23776
4.26434
4.2623
4.25555
4.23764
4.23782
4.26435
4.26232
4.25558
4.23769
4.23786
4.26436
4.26233
4.25561
4.23773
4.2379
4.26437
4.26235
4.25564
4.23777
4.23793
4.26438
4.26236
4.25566
4.23781
4.23797
4.26439
4.26238
4.25569
4.23785
4.238
4.26438
4.26239
4.25571
4.23787
4.23802
4.26439
4.2624
4.25573
4.2379
4.23805
4.2644
4.26241
4.25574
4.23793
4.23807
4.26441
4.26242
4.25576
4.23795
4.23809
4.26441
4.26243
4.25577
4.23798
4.23811
4.26441
4.26244
4.25578
4.238
4.23813
4.26441
4.26244
4.25579
4.23802
4.23815
4.26441
4.26245
4.25581
4.23803
4.23816
4.26442
4.26245
4.25582
4.23804
4.23817
4.26443
4.26246
4.25583
4.23806
4.23818
4.26443
4.26247
4.25583
4.23807
4.23819
4.26443
4.26247
4.25584
4.23808
4.2382
4.26443
4.26247
4.25584
4.23809
4.23821
4.26443
4.26248
4.25585
4.2381
4.23822
4.26443
4.26248
4.25586
4.23811
4.23823
4.26443
4.26249
4.25586
4.23812
4.23823
4.26444
4.26249
4.25586
4.23812
4.23824
4.26443
4.26249
4.25587
4.23813
4.23824
4.26443
4.26249
4.25588
4.23814
4.23825
4.26443
4.26249
4.25588
4.23814
4.23825
4.26525
4.26554
4.26602
4.26581
4.26542
4.26525
4.26554
4.26602
4.26581
4.26541
4.26526
4.26554
4.26602
4.26581
4.2654
4.26527
4.26554
4.26601
4.2658
4.26539
4.26528
4.26555
4.26601
4.26579
4.26538
4.26529
4.26556
4.266
4.26578
4.26535
4.26531
4.26556
4.266
4.26577
4.26533
4.26533
4.26558
4.26599
4.26575
4.26529
4.26536
4.26559
4.26598
4.26572
4.26525
4.26539
4.2656
4.26597
4.26569
4.26518
4.26544
4.26563
4.26595
4.26565
4.26511
4.2655
4.26565
4.26593
4.2656
4.26502
4.26557
4.26569
4.26591
4.26554
4.2649
4.26567
4.26574
4.26587
4.26546
4.26475
4.26579
4.26579
4.26583
4.26536
4.26457
4.26593
4.26586
4.26578
4.26524
4.26435
4.2661
4.26594
4.26573
4.26511
4.26409
4.2663
4.26604
4.26567
4.26496
4.26382
4.26651
4.26615
4.26561
4.26482
4.26357
4.26669
4.26625
4.26557
4.26472
4.26341
4.26679
4.26632
4.26558
4.26476
4.26349
4.26667
4.26633
4.2657
4.26506
4.2641
4.26625
4.26626
4.266
4.26583
4.26554
4.26587
4.26633
4.26656
4.26691
4.26738
4.26604
4.26679
4.26728
4.26789
4.26874
4.26634
4.26717
4.26768
4.2683
4.26919
4.26614
4.26697
4.26748
4.26802
4.26887
4.26587
4.26669
4.26719
4.26759
4.26842
4.26601
4.26684
4.26736
4.26767
4.26852
4.26607
4.2669
4.26736
4.2677
4.26853
4.26651
4.26747
4.26735
4.26701
4.26739
4.26605
4.26757
4.26747
4.26672
4.26684
4.26325
4.26657
4.26787
4.26807
4.26859
4.2608
4.26621
4.26859
4.26958
4.27035
4.25959
4.26668
4.26848
4.26933
4.27002
4.25772
4.26668
4.26818
4.26908
4.26996
4.25455
4.26599
4.26824
4.26899
4.27016
4.25072
4.26499
4.26902
4.26977
4.27046
4.24809
4.26481
4.26989
4.27039
4.27101
4.24641
4.26445
4.27007
4.27055
4.27106
4.24535
4.26403
4.26998
4.27047
4.2709
4.24468
4.26369
4.26984
4.27032
4.27071
4.24425
4.26344
4.26971
4.2702
4.27055
4.24397
4.26326
4.26962
4.27011
4.27044
4.24379
4.26314
4.26955
4.27004
4.27036
4.24368
4.26306
4.2695
4.26999
4.2703
4.2436
4.26301
4.26947
4.26995
4.27027
4.24354
4.26296
4.26943
4.26993
4.27024
4.24349
4.26292
4.26941
4.2699
4.27021
4.24344
4.26288
4.26938
4.26988
4.27019
4.24338
4.26284
4.26936
4.26986
4.27017
4.24334
4.26281
4.26935
4.26984
4.27015
4.2433
4.26278
4.26933
4.26983
4.27014
4.24327
4.26276
4.26931
4.26981
4.27012
4.24324
4.26274
4.2693
4.2698
4.2701
4.24321
4.26271
4.26928
4.26978
4.27008
4.24318
4.26269
4.26927
4.26977
4.27007
4.24316
4.26267
4.26926
4.26976
4.27006
4.24314
4.26265
4.26925
4.26975
4.27005
4.24312
4.26264
4.26924
4.26974
4.27004
4.2431
4.26263
4.26923
4.26973
4.27004
4.24308
4.26261
4.26922
4.26972
4.27003
4.24307
4.2626
4.26921
4.26972
4.27001
4.24306
4.26259
4.2692
4.26971
4.27001
4.24304
4.26258
4.2692
4.26971
4.27
4.24303
4.26257
4.26919
4.2697
4.27
4.24303
4.26257
4.26919
4.2697
4.26999
4.24301
4.26256
4.26919
4.26969
4.26998
4.24301
4.26256
4.26918
4.26968
4.26998
4.243
4.26255
4.26917
4.26968
4.26998
4.243
4.26253
4.26917
4.26968
4.26997
4.24299
4.26254
4.26917
4.26968
4.26997
4.26768
4.26926
4.27069
4.27095
4.27106
4.26768
4.26927
4.27069
4.27095
4.27107
4.26769
4.26928
4.2707
4.27096
4.27107
4.26771
4.26929
4.2707
4.27096
4.27109
4.26772
4.2693
4.27072
4.27098
4.2711
4.26774
4.26932
4.27073
4.27099
4.27112
4.26777
4.26935
4.27075
4.27101
4.27114
4.26779
4.26937
4.27077
4.27103
4.27117
4.26783
4.26941
4.2708
4.27106
4.27121
4.26789
4.26946
4.27084
4.2711
4.27125
4.26796
4.26953
4.27089
4.27114
4.27131
4.26805
4.26961
4.27096
4.27121
4.27139
4.26817
4.26972
4.27104
4.27129
4.27149
4.26831
4.26985
4.27114
4.27139
4.27163
4.26849
4.27001
4.27127
4.27152
4.27179
4.26871
4.27022
4.27142
4.27168
4.272
4.26898
4.27046
4.27161
4.27188
4.27226
4.2693
4.27075
4.27184
4.27212
4.27257
4.26965
4.27106
4.27208
4.2724
4.27294
4.27001
4.27137
4.27232
4.27271
4.27336
4.27031
4.27161
4.27252
4.27302
4.2738
4.27041
4.27167
4.2726
4.27328
4.27419
4.27025
4.27145
4.2725
4.27339
4.27437
4.27041
4.27163
4.27287
4.27397
4.27499
4.27156
4.27284
4.2742
4.27536
4.27637
4.27272
4.27401
4.27535
4.27646
4.27744
4.27278
4.27396
4.27519
4.27623
4.27717
4.27289
4.27394
4.27519
4.27637
4.27733
4.27376
4.27478
4.27617
4.27756
4.27862
4.27379
4.27475
4.27602
4.27736
4.27837
4.27369
4.27473
4.27568
4.27671
4.2776
4.27422
4.27527
4.27617
4.27707
4.27782
4.27475
4.27572
4.2767
4.27763
4.27826
4.27564
4.27663
4.27769
4.27868
4.2794
4.27581
4.27681
4.27783
4.27873
4.27938
4.27638
4.27742
4.27843
4.27927
4.27988
4.27676
4.27781
4.27905
4.27984
4.28025
4.27758
4.27841
4.27937
4.28017
4.28057
4.2789
4.27966
4.28051
4.28128
4.28182
4.27918
4.27994
4.28073
4.28148
4.28208
4.279
4.27975
4.2805
4.28122
4.28183
4.27873
4.27948
4.2802
4.28089
4.28149
4.2785
4.27923
4.27995
4.28062
4.28121
4.27832
4.27905
4.27975
4.28041
4.281
4.27819
4.27893
4.27962
4.28027
4.28085
4.2781
4.27884
4.27953
4.28017
4.28074
4.27804
4.27878
4.27947
4.2801
4.28066
4.278
4.27873
4.27942
4.28005
4.28061
4.27796
4.27869
4.27938
4.28
4.28056
4.27792
4.27865
4.27933
4.27995
4.28051
4.27788
4.27861
4.27929
4.27991
4.28046
4.27784
4.27858
4.27925
4.27987
4.28042
4.2778
4.27854
4.27922
4.27983
4.28038
4.27777
4.27851
4.27919
4.2798
4.28035
4.27775
4.27848
4.27916
4.27977
4.28032
4.27773
4.27846
4.27913
4.27974
4.28029
4.2777
4.27843
4.2791
4.27972
4.28026
4.27768
4.27841
4.27908
4.27969
4.28023
4.27766
4.27838
4.27906
4.27967
4.28021
4.27764
4.27837
4.27905
4.27965
4.28019
4.27763
4.27836
4.27904
4.27963
4.28016
4.27762
4.27834
4.27902
4.27962
4.28015
4.27761
4.27833
4.279
4.2796
4.28014
4.2776
4.27831
4.27898
4.27959
4.28012
4.27759
4.2783
4.27898
4.27957
4.2801
4.27758
4.2783
4.27897
4.27956
4.28009
4.27756
4.27829
4.27896
4.27955
4.28008
4.27755
4.27828
4.27895
4.27955
4.28008
4.27755
4.27827
4.27894
4.27954
4.28007
4.27754
4.27827
4.27893
4.27953
4.28007
4.27753
4.27826
4.27893
4.27953
4.28005
4.27753
4.27825
4.27892
4.27952
4.28004
4.27231
4.27418
4.2753
4.27604
4.27658
4.27232
4.27419
4.27531
4.27605
4.2766
4.27233
4.2742
4.27533
4.27607
4.27662
4.27234
4.27421
4.27535
4.2761
4.27665
4.27236
4.27424
4.27538
4.27613
4.2767
4.27239
4.27427
4.27541
4.27618
4.27675
4.27242
4.2743
4.27546
4.27624
4.27682
4.27246
4.27435
4.27552
4.27631
4.27691
4.2725
4.27441
4.2756
4.27641
4.27703
4.27257
4.27449
4.2757
4.27653
4.27717
4.27265
4.2746
4.27583
4.27669
4.27737
4.27276
4.27473
4.276
4.2769
4.27761
4.27289
4.2749
4.27621
4.27716
4.27793
4.27307
4.27512
4.27648
4.27749
4.27832
4.27329
4.27539
4.27682
4.27791
4.27882
4.27357
4.27572
4.27723
4.27842
4.27943
4.27391
4.27613
4.27773
4.27903
4.28016
4.27432
4.2766
4.27831
4.27973
4.281
4.27479
4.27712
4.27894
4.28049
4.2819
4.27529
4.27764
4.27954
4.28121
4.28275
4.27576
4.27804
4.27996
4.28168
4.28329
4.27603
4.27807
4.27986
4.28149
4.28303
4.27583
4.27742
4.27887
4.28019
4.28148
4.27603
4.27713
4.27819
4.27912
4.28007
4.27725
4.27817
4.27911
4.27989
4.2807
4.27832
4.27928
4.28026
4.28106
4.28188
4.27805
4.27894
4.27985
4.28057
4.28134
4.27826
4.27915
4.28002
4.28078
4.28151
4.27962
4.28058
4.2815
4.28242
4.28324
4.27917
4.28002
4.28082
4.2817
4.28247
4.27845
4.27966
4.28073
4.28172
4.28273
4.27863
4.28068
4.28333
4.28509
4.28615
4.27866
4.28043
4.28254
4.28377
4.28471
4.2796
4.28111
4.28251
4.28294
4.28324
4.27955
4.28101
4.28245
4.283
4.28384