/*--------------------------------*- C++ -*----------------------------------*\
  =========                 |
  \\      /  F ield         | OpenFOAM: The Open Source CFD Toolbox
   \\    /   O peration     | Website:  https://openfoam.org
    \\  /    A nd           | Version:  10
     \\/     M anipulation  |
\*---------------------------------------------------------------------------*/
FoamFile
{
    format      ascii;
    class       volScalarField;
    location    "0";
    object      yPlus;
}
// * * * * * * * * * * * * * * * * * * * * * * * * * * * * * * * * * * * * * //

dimensions      [0 0 0 0 0 0 0];

internalField   uniform 0;

boundaryField
{
    BLADE
    {
        type            calculated;
        value           nonuniform List<scalar> 
12067
(
4.128
4.11925
4.12073
4.128
4.11924
4.12072
4.128
4.11923
4.12072
4.128
4.11923
4.12071
4.12801
4.11922
4.1207
4.12802
4.11921
4.12069
4.12803
4.11919
4.12067
4.12803
4.11917
4.12066
4.12805
4.11913
4.12063
4.12807
4.11909
4.12059
4.12809
4.11903
4.12054
4.12812
4.11897
4.12048
4.12815
4.1189
4.12041
4.12821
4.11881
4.12031
4.12829
4.11869
4.1202
4.12839
4.11854
4.12007
4.12853
4.11836
4.11991
4.12873
4.11813
4.11972
4.12901
4.11787
4.11954
4.12944
4.1176
4.11937
4.13004
4.11733
4.11928
4.13092
4.11713
4.11939
4.13201
4.11716
4.11985
4.13313
4.11715
4.12024
4.13416
4.11681
4.12026
4.13522
4.11647
4.12044
4.13648
4.11654
4.1214
4.13763
4.11675
4.12242
4.13842
4.11665
4.12254
4.13906
4.11638
4.12217
4.1403
4.1175
4.11978
4.14207
4.12139
4.1172
4.14374
4.12574
4.1162
4.14507
4.12787
4.11567
4.14606
4.12867
4.11528
4.14685
4.12961
4.1168
4.14737
4.13099
4.12151
4.14737
4.1317
4.12474
4.14712
4.13127
4.12527
4.147
4.13096
4.1254
4.14697
4.13085
4.12559
4.14696
4.13082
4.12575
4.14697
4.13081
4.12587
4.14697
4.13081
4.12596
4.14698
4.1308
4.12601
4.14699
4.1308
4.12603
4.14699
4.1308
4.12606
4.14699
4.1308
4.12607
4.14699
4.1308
4.12609
4.14699
4.1308
4.12611
4.14699
4.13081
4.12612
4.147
4.13081
4.12614
4.147
4.13081
4.12615
4.14701
4.13082
4.12616
4.14701
4.13082
4.12618
4.14701
4.13082
4.12619
4.147
4.13082
4.1262
4.147
4.13082
4.12621
4.147
4.13082
4.12621
4.14701
4.13082
4.12621
4.14701
4.13082
4.12623
4.147
4.13083
4.12624
4.147
4.13082
4.12624
4.14701
4.13082
4.12625
4.14701
4.13082
4.12625
4.14701
4.13082
4.12624
4.14701
4.13082
4.12625
4.14701
4.13083
4.12626
4.14701
4.13083
4.12626
4.14701
4.13083
4.12626
4.14702
4.13083
4.12626
4.14701
4.13083
4.12627
4.12233
4.12179
4.12482
4.12901
4.12233
4.12179
4.12482
4.129
4.12232
4.12179
4.12481
4.129
4.12231
4.12178
4.12481
4.12899
4.1223
4.12177
4.1248
4.12899
4.12229
4.12176
4.12479
4.12898
4.12228
4.12175
4.12477
4.12896
4.12226
4.12173
4.12475
4.12895
4.12223
4.12171
4.12473
4.12893
4.12219
4.12167
4.1247
4.1289
4.12214
4.12163
4.12466
4.12887
4.12208
4.12158
4.12461
4.12883
4.12201
4.12151
4.12455
4.12877
4.12191
4.12143
4.12447
4.1287
4.12179
4.12132
4.12437
4.12862
4.12165
4.1212
4.12424
4.12851
4.12148
4.12104
4.1241
4.12839
4.12128
4.12087
4.12393
4.12824
4.12107
4.12069
4.12375
4.1281
4.12087
4.12053
4.12359
4.12797
4.12073
4.12044
4.12349
4.12791
4.12078
4.12052
4.12357
4.12802
4.12115
4.1209
4.12392
4.1284
4.12132
4.12094
4.12359
4.128
4.12098
4.12023
4.12188
4.1259
4.12103
4.1202
4.12072
4.1238
4.12231
4.12203
4.12171
4.12328
4.12376
4.12469
4.12424
4.1243
4.12392
4.12528
4.12491
4.12456
4.12338
4.12484
4.1246
4.12436
4.12216
4.12386
4.12382
4.12372
4.12147
4.12336
4.12339
4.1233
4.12155
4.12366
4.12375
4.12369
4.12137
4.12368
4.12379
4.12374
4.12058
4.12326
4.12324
4.12315
4.11752
4.12245
4.12249
4.1224
4.11447
4.1222
4.12237
4.12229
4.1139
4.12275
4.12313
4.1231
4.11404
4.12314
4.12362
4.12363
4.11437
4.12349
4.12396
4.12395
4.11466
4.12377
4.12421
4.12416
4.11488
4.12397
4.12437
4.12429
4.11504
4.12411
4.12449
4.12438
4.11515
4.1242
4.12456
4.12444
4.11522
4.12426
4.12461
4.12448
4.11527
4.1243
4.12465
4.1245
4.11531
4.12433
4.12467
4.12452
4.11533
4.12435
4.12468
4.12453
4.11535
4.12437
4.1247
4.12454
4.11537
4.12439
4.12471
4.12456
4.11539
4.12441
4.12473
4.12457
4.11541
4.12442
4.12474
4.12457
4.11543
4.12443
4.12475
4.12458
4.11544
4.12445
4.12476
4.12459
4.11546
4.12445
4.12477
4.1246
4.11548
4.12447
4.12477
4.1246
4.11549
4.12448
4.12478
4.12461
4.1155
4.12449
4.12479
4.12461
4.1155
4.12449
4.1248
4.12462
4.11551
4.1245
4.1248
4.12462
4.11552
4.12451
4.12481
4.12463
4.11553
4.12452
4.12481
4.12463
4.11554
4.12453
4.12482
4.12463
4.11554
4.12452
4.12482
4.12464
4.11555
4.12453
4.12482
4.12464
4.11555
4.12453
4.12483
4.12464
4.11556
4.12454
4.12483
4.12465
4.11556
4.12455
4.12483
4.12465
4.11557
4.12455
4.12484
4.12465
4.11557
4.12455
4.12484
4.12465
4.11557
4.12455
4.12484
4.12465
4.11558
4.12456
4.12484
4.12465
4.12797
4.12724
4.14278
4.14845
4.14824
4.14771
4.12797
4.12724
4.14278
4.14845
4.14824
4.14771
4.12797
4.12724
4.14278
4.14845
4.14824
4.14771
4.12796
4.12724
4.14278
4.14846
4.14825
4.14771
4.12796
4.12723
4.14277
4.14846
4.14825
4.14772
4.12796
4.12722
4.14276
4.14846
4.14825
4.14773
4.12795
4.12721
4.14275
4.14846
4.14825
4.14773
4.12794
4.1272
4.14274
4.14847
4.14826
4.14774
4.12793
4.12719
4.14272
4.14847
4.14826
4.14775
4.12791
4.12716
4.1427
4.14847
4.14826
4.14776
4.12789
4.12713
4.14267
4.14849
4.14827
4.14777
4.12786
4.1271
4.14264
4.1485
4.14828
4.14779
4.12783
4.12705
4.14259
4.14851
4.14829
4.14782
4.12778
4.12699
4.14252
4.14852
4.1483
4.14785
4.12773
4.12692
4.14243
4.14855
4.14831
4.14788
4.12768
4.12683
4.14231
4.14858
4.14834
4.14793
4.12761
4.12673
4.14215
4.14861
4.14836
4.14799
4.12754
4.1266
4.14194
4.14865
4.14838
4.14807
4.12749
4.12646
4.14165
4.14868
4.14841
4.14816
4.12749
4.12633
4.14125
4.14871
4.14841
4.14823
4.12759
4.12624
4.1407
4.14873
4.14838
4.14828
4.12788
4.12624
4.13995
4.1487
4.1483
4.14827
4.12844
4.12641
4.13905
4.14862
4.14815
4.14814
4.12841
4.12627
4.13816
4.14845
4.14786
4.14776
4.12695
4.12519
4.1373
4.1482
4.14748
4.14721
4.12488
4.12346
4.13638
4.148
4.14731
4.14698
4.12335
4.12155
4.13532
4.14799
4.14763
4.14751
4.1227
4.12011
4.13448
4.14806
4.14811
4.14838
4.1224
4.11963
4.13423
4.14806
4.14825
4.14868
4.12224
4.11965
4.13434
4.14811
4.1483
4.14873
4.1218
4.1192
4.1334
4.14832
4.14867
4.14903
4.12167
4.11867
4.13123
4.14823
4.14894
4.14921
4.12237
4.11894
4.12947
4.14766
4.14874
4.14897
4.1227
4.11917
4.12848
4.14721
4.14848
4.1488
4.12234
4.11899
4.12781
4.14715
4.14859
4.14889
4.12176
4.11864
4.12643
4.14695
4.1489
4.14915
4.12176
4.11883
4.12471
4.14615
4.14893
4.14918
4.12254
4.11954
4.12372
4.14531
4.14881
4.14906
4.12297
4.11976
4.12325
4.14495
4.14886
4.14911
4.1232
4.11981
4.12296
4.14475
4.14889
4.14913
4.12334
4.11985
4.12278
4.14459
4.14888
4.14911
4.12343
4.11988
4.12265
4.14449
4.14887
4.14908
4.12349
4.11989
4.12258
4.14442
4.14885
4.14906
4.12353
4.1199
4.12253
4.14438
4.14885
4.14904
4.12355
4.11991
4.1225
4.14436
4.14884
4.14903
4.12357
4.11991
4.12248
4.14433
4.14883
4.14902
4.12358
4.11991
4.12245
4.14431
4.14883
4.14902
4.12359
4.11992
4.12244
4.1443
4.14882
4.14902
4.12359
4.11992
4.12244
4.14429
4.14881
4.149
4.1236
4.11992
4.12243
4.14428
4.14881
4.14901
4.12361
4.11993
4.12241
4.14426
4.14881
4.14901
4.12361
4.11993
4.12241
4.14426
4.14881
4.149
4.12362
4.11993
4.12241
4.14426
4.14881
4.14899
4.12363
4.11993
4.1224
4.14425
4.14881
4.14899
4.12363
4.11993
4.12239
4.14424
4.1488
4.14899
4.12363
4.11993
4.12239
4.14423
4.1488
4.14899
4.12363
4.11993
4.12238
4.14423
4.14881
4.14899
4.12364
4.11993
4.12238
4.14423
4.1488
4.14899
4.12364
4.11993
4.12237
4.14422
4.14879
4.14898
4.12364
4.11993
4.12237
4.14422
4.1488
4.14899
4.12365
4.11994
4.12237
4.14422
4.1488
4.14898
4.12365
4.11994
4.12237
4.14422
4.1488
4.14898
4.12366
4.11994
4.12237
4.14422
4.14879
4.14898
4.12365
4.11994
4.12236
4.14422
4.14879
4.14898
4.12366
4.11993
4.12236
4.14421
4.14879
4.14898
4.12366
4.11994
4.12236
4.14421
4.14878
4.14897
4.12366
4.11994
4.12235
4.1442
4.14878
4.14898
4.12366
4.11994
4.12235
4.1442
4.14879
4.14898
4.12366
4.11994
4.12235
4.1442
4.14879
4.14898
4.12366
4.11994
4.12235
4.1442
4.14879
4.14897
4.12367
4.11994
4.12235
4.1442
4.14879
4.14898
4.12366
4.11994
4.12234
4.1442
4.14878
4.14897
4.14753
4.14816
4.14855
4.14858
4.14852
4.14868
4.14867
4.1487
4.14866
4.14844
4.14834
4.14753
4.14816
4.14854
4.14859
4.14852
4.14868
4.14868
4.1487
4.14866
4.14844
4.14834
4.14753
4.14817
4.14855
4.14859
4.14852
4.14868
4.14868
4.1487
4.14866
4.14844
4.14834
4.14753
4.14817
4.14856
4.14859
4.14852
4.14868
4.14868
4.1487
4.14866
4.14845
4.14834
4.14753
4.14817
4.14856
4.14859
4.14852
4.14868
4.14868
4.1487
4.14866
4.14845
4.14835
4.14754
4.14817
4.14855
4.14859
4.14853
4.14869
4.14868
4.1487
4.14866
4.14845
4.14835
4.14754
4.14817
4.14855
4.14859
4.14853
4.14869
4.14869
4.14871
4.14867
4.14846
4.14836
4.14754
4.14817
4.14856
4.1486
4.14853
4.14869
4.14869
4.14872
4.14867
4.14846
4.14837
4.14754
4.14817
4.14856
4.1486
4.14853
4.1487
4.1487
4.14872
4.14868
4.14848
4.14838
4.14755
4.14818
4.14857
4.14861
4.14854
4.1487
4.1487
4.14873
4.14869
4.14848
4.14839
4.14755
4.14818
4.14857
4.14861
4.14855
4.14871
4.1487
4.14874
4.1487
4.14849
4.14839
4.14755
4.14818
4.14858
4.14862
4.14856
4.14872
4.14871
4.14874
4.14871
4.14851
4.14841
4.14756
4.1482
4.14859
4.14863
4.14857
4.14873
4.14873
4.14876
4.14873
4.14854
4.14843
4.14757
4.14821
4.1486
4.14864
4.14859
4.14875
4.14875
4.14879
4.14875
4.14856
4.14846
4.14758
4.14822
4.14861
4.14866
4.1486
4.14877
4.14877
4.14881
4.14878
4.14859
4.14849
4.14759
4.14824
4.14863
4.14868
4.14863
4.1488
4.1488
4.14884
4.14881
4.14862
4.14853
4.14761
4.14825
4.14865
4.1487
4.14865
4.14883
4.14883
4.14888
4.14886
4.14867
4.14858
4.14763
4.14828
4.14868
4.14873
4.14868
4.14886
4.14887
4.14892
4.14889
4.14872
4.14863
4.14764
4.1483
4.14871
4.14875
4.14871
4.1489
4.14891
4.14896
4.14894
4.14877
4.14868
4.14763
4.14832
4.14874
4.14878
4.14874
4.14894
4.14895
4.149
4.14898
4.14882
4.14873
4.14763
4.14833
4.14875
4.1488
4.14875
4.14896
4.14896
4.14903
4.149
4.14884
4.14876
4.1476
4.1483
4.14874
4.14879
4.14875
4.14895
4.14895
4.14901
4.14897
4.14881
4.14872
4.14753
4.14825
4.1487
4.14874
4.1487
4.14891
4.14888
4.14892
4.14887
4.1487
4.14859
4.14749
4.14821
4.14865
4.1487
4.14865
4.14888
4.14885
4.14887
4.14881
4.14866
4.14857
4.14758
4.14823
4.14865
4.1487
4.14867
4.14893
4.14894
4.14897
4.14892
4.14886
4.14885
4.14781
4.14835
4.1487
4.14874
4.14871
4.14899
4.14902
4.14907
4.14902
4.14905
4.14914
4.14812
4.14851
4.14875
4.14877
4.14871
4.14896
4.14898
4.14901
4.14891
4.14898
4.14913
4.14841
4.14868
4.14884
4.14883
4.14875
4.14895
4.14896
4.14899
4.14885
4.14895
4.14914
4.14851
4.14873
4.1489
4.14889
4.14884
4.14902
4.14904
4.1491
4.14899
4.14911
4.14933
4.14846
4.14861
4.14882
4.14882
4.14884
4.149
4.14899
4.14903
4.1489
4.14898
4.14919
4.14848
4.14856
4.14878
4.14881
4.1489
4.14904
4.14902
4.14903
4.14891
4.14898
4.14916
4.14857
4.14863
4.14882
4.14886
4.14901
4.14913
4.14912
4.14913
4.14904
4.14917
4.14934
4.14857
4.14865
4.14877
4.14881
4.14903
4.14913
4.14911
4.14911
4.14904
4.14917
4.14932
4.14851
4.14871
4.14882
4.14883
4.14908
4.14918
4.14917
4.14922
4.14917
4.14929
4.14945
4.14837
4.14875
4.14893
4.14884
4.14908
4.14916
4.14913
4.14921
4.14915
4.14921
4.14937
4.14837
4.14879
4.14902
4.14889
4.14911
4.1492
4.14917
4.14922
4.14916
4.1492
4.14938
4.14855
4.14883
4.14906
4.14891
4.14914
4.14923
4.14922
4.14924
4.14916
4.14922
4.14943
4.14855
4.14869
4.14887
4.14874
4.14898
4.14914
4.1492
4.1493
4.14928
4.14937
4.14959
4.14847
4.14855
4.14869
4.1486
4.14888
4.14912
4.14927
4.14949
4.14959
4.14976
4.15001
4.14851
4.14857
4.14869
4.14862
4.14888
4.14912
4.14927
4.14953
4.14966
4.14985
4.1501
4.14858
4.14866
4.14876
4.14869
4.14891
4.14913
4.14925
4.14949
4.14961
4.14979
4.15003
4.14865
4.14874
4.14883
4.14875
4.14895
4.14914
4.14922
4.14944
4.14955
4.14971
4.14993
4.14871
4.1488
4.14888
4.14881
4.14898
4.14914
4.1492
4.14939
4.14948
4.14964
4.14984
4.14874
4.14884
4.14893
4.14884
4.149
4.14914
4.14919
4.14936
4.14944
4.14959
4.14978
4.14877
4.14888
4.14895
4.14887
4.14902
4.14915
4.14917
4.14933
4.14941
4.14954
4.14973
4.14879
4.14889
4.14897
4.14889
4.14903
4.14914
4.14916
4.14932
4.14938
4.14952
4.1497
4.1488
4.1489
4.14898
4.1489
4.14904
4.14915
4.14916
4.14931
4.14937
4.14951
4.14968
4.14881
4.14892
4.149
4.14891
4.14904
4.14915
4.14915
4.1493
4.14936
4.14949
4.14966
4.14881
4.14893
4.14901
4.14892
4.14905
4.14914
4.14914
4.14929
4.14935
4.14948
4.14965
4.14883
4.14894
4.14901
4.14893
4.14905
4.14915
4.14914
4.14928
4.14934
4.14946
4.14963
4.14884
4.14895
4.14902
4.14893
4.14905
4.14915
4.14914
4.14927
4.14933
4.14945
4.14961
4.14884
4.14896
4.14903
4.14894
4.14906
4.14915
4.14913
4.14927
4.14932
4.14944
4.1496
4.14885
4.14897
4.14903
4.14894
4.14906
4.14915
4.14914
4.14926
4.14932
4.14943
4.14959
4.14886
4.14898
4.14904
4.14896
4.14907
4.14916
4.14914
4.14926
4.14931
4.14942
4.14958
4.14886
4.14898
4.14905
4.14897
4.14907
4.14915
4.14914
4.14926
4.1493
4.14941
4.14957
4.14886
4.14898
4.14905
4.14896
4.14907
4.14915
4.14913
4.14925
4.14929
4.1494
4.14956
4.14888
4.14899
4.14905
4.14896
4.14907
4.14916
4.14912
4.14924
4.14928
4.14939
4.14955
4.14888
4.149
4.14906
4.14897
4.14907
4.14915
4.14912
4.14924
4.14928
4.14939
4.14954
4.14888
4.149
4.14907
4.14898
4.14907
4.14915
4.14912
4.14924
4.14928
4.14939
4.14954
4.14887
4.149
4.14907
4.14898
4.14908
4.14915
4.14912
4.14923
4.14927
4.14938
4.14953
4.14888
4.14901
4.14907
4.14898
4.14908
4.14915
4.14912
4.14923
4.14926
4.14936
4.14952
4.14889
4.14901
4.14908
4.14899
4.14909
4.14916
4.14912
4.14923
4.14926
4.14937
4.14952
4.14889
4.14902
4.14908
4.14899
4.14909
4.14916
4.14912
4.14923
4.14926
4.14936
4.14951
4.1489
4.14902
4.14908
4.14899
4.14909
4.14915
4.14911
4.14922
4.14925
4.14936
4.14951
4.1489
4.14902
4.14908
4.149
4.14909
4.14915
4.14911
4.14922
4.14925
4.14936
4.14951
4.1489
4.14902
4.14909
4.149
4.14909
4.14916
4.14911
4.14921
4.14925
4.14936
4.14949
4.1489
4.14902
4.14908
4.149
4.14909
4.14915
4.14911
4.14921
4.14925
4.14935
4.1495
4.14891
4.14903
4.14909
4.149
4.1491
4.14916
4.14911
4.14922
4.14925
4.14935
4.1495
4.14891
4.14903
4.1491
4.149
4.14909
4.14915
4.1491
4.14921
4.14925
4.14935
4.1495
4.1489
4.14903
4.14909
4.14899
4.14909
4.14915
4.1491
4.14921
4.14924
4.14934
4.14949
4.1489
4.14903
4.14909
4.14899
4.14909
4.14915
4.1491
4.14921
4.14924
4.14934
4.14949
4.1489
4.14903
4.1491
4.149
4.14909
4.14915
4.14911
4.14922
4.14924
4.14934
4.14949
4.1484
4.1484
4.14803
4.14812
4.1484
4.1484
4.14803
4.14812
4.14841
4.1484
4.14803
4.14812
4.1484
4.1484
4.14803
4.14812
4.14841
4.14841
4.14804
4.14813
4.14841
4.14842
4.14804
4.14814
4.14842
4.14842
4.14805
4.14815
4.14843
4.14843
4.14806
4.14816
4.14844
4.14844
4.14807
4.14818
4.14845
4.14846
4.14809
4.1482
4.14846
4.14849
4.14812
4.14823
4.14848
4.14851
4.14815
4.14826
4.14851
4.14855
4.14819
4.14831
4.14854
4.1486
4.14824
4.14837
4.14858
4.14865
4.1483
4.14844
4.14863
4.14873
4.14837
4.14852
4.14868
4.14881
4.14846
4.14862
4.14874
4.1489
4.14856
4.14874
4.14881
4.14901
4.14866
4.14887
4.14887
4.14911
4.14875
4.14897
4.1489
4.14917
4.1488
4.14903
4.14886
4.14916
4.14874
4.14896
4.14869
4.14899
4.14851
4.14868
4.14864
4.14891
4.14836
4.14848
4.14896
4.14915
4.14861
4.14873
4.1493
4.14943
4.14898
4.14915
4.14929
4.14939
4.14917
4.14934
4.14932
4.14947
4.14956
4.14977
4.14958
4.1498
4.15007
4.1504
4.14941
4.14959
4.14981
4.15011
4.14938
4.14953
4.14974
4.14999
4.1496
4.14982
4.15004
4.15039
4.14958
4.14983
4.15
4.15038
4.14971
4.15003
4.15022
4.15063
4.14958
4.14987
4.15004
4.15043
4.14958
4.14984
4.15001
4.15035
4.14963
4.14992
4.15009
4.1505
4.14978
4.14998
4.15017
4.1505
4.15022
4.15045
4.15068
4.15107
4.15031
4.15052
4.15074
4.15113
4.15021
4.15039
4.1506
4.15096
4.15009
4.15024
4.15044
4.15076
4.14999
4.15011
4.15029
4.1506
4.14991
4.15001
4.15019
4.15049
4.14986
4.14995
4.15012
4.15041
4.14982
4.14991
4.15007
4.15035
4.1498
4.14989
4.15004
4.15031
4.14978
4.14986
4.15001
4.15028
4.14976
4.14983
4.14998
4.15024
4.14974
4.14981
4.14995
4.15022
4.14972
4.14979
4.14993
4.1502
4.14971
4.14978
4.14992
4.15018
4.1497
4.14976
4.1499
4.15016
4.14969
4.14975
4.14988
4.15013
4.14968
4.14974
4.14987
4.15011
4.14967
4.14972
4.14985
4.1501
4.14965
4.1497
4.14983
4.15009
4.14964
4.1497
4.14983
4.15007
4.14964
4.14969
4.14982
4.15006
4.14963
4.14968
4.14981
4.15005
4.14962
4.14967
4.14979
4.15004
4.14961
4.14966
4.14978
4.15003
4.1496
4.14965
4.14978
4.15003
4.14961
4.14965
4.14977
4.15001
4.1496
4.14964
4.14976
4.15
4.14958
4.14963
4.14975
4.15
4.14959
4.14963
4.14975
4.14999
4.14959
4.14962
4.14974
4.14998
4.14959
4.14962
4.14974
4.14998
4.14959
4.14962
4.14974
4.14998
4.14958
4.14962
4.14974
4.14997
4.14957
4.14961
4.14973
4.14997
4.14884
4.14933
4.14956
4.14963
4.1497
4.14979
4.14885
4.14934
4.14956
4.14963
4.1497
4.14979
4.14885
4.14935
4.14957
4.14964
4.14971
4.1498
4.14886
4.14935
4.14958
4.14965
4.14972
4.1498
4.14887
4.14936
4.14958
4.14966
4.14972
4.14981
4.14887
4.14937
4.14959
4.14967
4.14974
4.14983
4.14888
4.14938
4.14961
4.14968
4.14975
4.14984
4.1489
4.1494
4.14962
4.1497
4.14977
4.14986
4.14891
4.14941
4.14964
4.14972
4.14979
4.14989
4.14894
4.14944
4.14968
4.14976
4.14983
4.14993
4.14898
4.14948
4.14972
4.1498
4.14988
4.14998
4.14901
4.14953
4.14976
4.14985
4.14994
4.15004
4.14907
4.14959
4.14983
4.14992
4.15001
4.15011
4.14914
4.14966
4.14991
4.15
4.1501
4.15021
4.14922
4.14975
4.15
4.15011
4.15021
4.15033
4.14932
4.14986
4.15012
4.15023
4.15035
4.15047
4.14944
4.14999
4.15026
4.15039
4.15052
4.15064
4.14958
4.15014
4.15042
4.15056
4.1507
4.15084
4.14972
4.15029
4.15059
4.15074
4.1509
4.15104
4.14985
4.15043
4.15073
4.1509
4.15108
4.15122
4.14992
4.1505
4.15081
4.15097
4.15116
4.15131
4.14986
4.15042
4.1507
4.15085
4.15104
4.15116
4.14956
4.15009
4.15033
4.15045
4.1506
4.15067
4.14935
4.14993
4.1502
4.15034
4.15053
4.15064
4.1496
4.15031
4.15074
4.15105
4.15137
4.15167
4.14998
4.15075
4.15128
4.15171
4.15214
4.15256
4.14995
4.15047
4.15089
4.15124
4.15157
4.15192
4.15012
4.15045
4.15072
4.15096
4.15118
4.15141
4.15073
4.15103
4.15129
4.15153
4.15178
4.15204
4.15037
4.15062
4.15083
4.15101
4.15124
4.15143
4.1502
4.15042
4.15063
4.15082
4.15098
4.15116
4.15065
4.15089
4.15113
4.1514
4.15157
4.15173
4.15063
4.15085
4.15108
4.15136
4.15154
4.15169
4.1509
4.15119
4.15142
4.15172
4.15198
4.15216
4.15067
4.15089
4.1511
4.15134
4.15157
4.15171
4.15056
4.15081
4.15094
4.15117
4.15133
4.15146
4.15073
4.15091
4.15111
4.15133
4.15152
4.15163
4.1507
4.15088
4.15096
4.15115
4.15124
4.15137
4.15132
4.15149
4.15167
4.15187
4.152
4.15216
4.15139
4.15158
4.15175
4.15197
4.15211
4.15228
4.15121
4.15139
4.15154
4.15173
4.15186
4.15201
4.151
4.15116
4.15129
4.15146
4.15156
4.1517
4.15083
4.15097
4.15107
4.15124
4.15132
4.15144
4.1507
4.15083
4.15092
4.15106
4.15113
4.15125
4.1506
4.15073
4.15081
4.15094
4.15101
4.15112
4.15054
4.15066
4.15073
4.15087
4.15093
4.15103
4.1505
4.15062
4.15068
4.15081
4.15087
4.15097
4.15047
4.15058
4.15064
4.15077
4.15082
4.15092
4.15043
4.15055
4.1506
4.15072
4.15077
4.15087
4.1504
4.15052
4.15057
4.15068
4.15073
4.15083
4.15038
4.15048
4.15054
4.15066
4.15071
4.1508
4.15036
4.15046
4.15051
4.15063
4.15067
4.15076
4.15033
4.15043
4.15048
4.15059
4.15063
4.15072
4.1503
4.15041
4.15046
4.15057
4.1506
4.15069
4.15028
4.15038
4.15043
4.15054
4.15058
4.15066
4.15027
4.15037
4.15041
4.15051
4.15055
4.15064
4.15027
4.15035
4.15038
4.15049
4.15053
4.15061
4.15025
4.15034
4.15037
4.15047
4.15051
4.15059
4.15023
4.15032
4.15036
4.15046
4.15049
4.15057
4.15022
4.1503
4.15034
4.15044
4.15048
4.15055
4.1502
4.15029
4.15033
4.15043
4.15045
4.15053
4.15019
4.15028
4.15032
4.15042
4.15044
4.15052
4.15019
4.15027
4.1503
4.1504
4.15043
4.15051
4.15018
4.15026
4.15029
4.15038
4.15041
4.1505
4.15017
4.15025
4.15028
4.15038
4.15041
4.15048
4.15016
4.15024
4.15028
4.15037
4.1504
4.15048
4.15015
4.15024
4.15027
4.15037
4.15039
4.15046
4.15015
4.15023
4.15026
4.15036
4.15038
4.15045
4.15015
4.15022
4.15025
4.15035
4.15037
4.15044
4.15014
4.15022
4.15025
4.15034
4.15036
4.15044
4.15013
4.15021
4.15024
4.15034
4.15036
4.15043
4.15013
4.15021
4.15024
4.15033
4.15035
4.15043
4.10854
4.10526
4.11151
4.12999
4.13123
4.10853
4.10524
4.11149
4.12999
4.13123
4.10852
4.10521
4.11147
4.12999
4.13124
4.10852
4.10517
4.11144
4.12999
4.13125
4.1085
4.10512
4.1114
4.12999
4.13127
4.10849
4.10505
4.11134
4.13
4.13129
4.10846
4.10497
4.11127
4.12999
4.13131
4.10843
4.10485
4.11118
4.12999
4.13134
4.1084
4.10471
4.11105
4.12999
4.13137
4.10835
4.10452
4.1109
4.12999
4.13142
4.10829
4.10428
4.1107
4.12999
4.13148
4.10823
4.10397
4.11044
4.12999
4.13156
4.10815
4.10358
4.1101
4.12997
4.13166
4.10805
4.10308
4.10967
4.12995
4.13179
4.10795
4.10246
4.10912
4.1299
4.13194
4.10786
4.10169
4.10843
4.12982
4.13213
4.10781
4.10076
4.10756
4.12967
4.13235
4.10786
4.09977
4.10651
4.12941
4.1326
4.1081
4.09874
4.10528
4.12897
4.13285
4.10874
4.0978
4.10401
4.12821
4.13305
4.11011
4.09725
4.10287
4.12694
4.13311
4.11279
4.09765
4.10232
4.12484
4.13282
4.11703
4.09973
4.10306
4.12203
4.13209
4.12121
4.10289
4.10485
4.1192
4.13129
4.12318
4.10494
4.10584
4.11692
4.13107
4.1238
4.10592
4.10602
4.11498
4.13106
4.12482
4.10744
4.10678
4.11301
4.13049
4.12551
4.1089
4.1075
4.11111
4.12965
4.12568
4.10997
4.10767
4.10937
4.12879
4.12649
4.11177
4.10833
4.1081
4.12722
4.12494
4.11114
4.10508
4.10483
4.12367
4.12448
4.11308
4.10038
4.1015
4.11764
4.12752
4.1201
4.10311
4.10334
4.11205
4.12983
4.12484
4.10779
4.10619
4.10836
4.13018
4.12593
4.1101
4.10715
4.10614
4.13018
4.1266
4.11287
4.106
4.10456
4.13011
4.12688
4.11642
4.10245
4.10358
4.13058
4.12763
4.11969
4.10163
4.10341
4.13065
4.12801
4.12079
4.10243
4.10354
4.13068
4.12828
4.12129
4.10323
4.1039
4.13075
4.1285
4.12168
4.10384
4.10428
4.13081
4.12866
4.12195
4.10428
4.10459
4.13086
4.12877
4.12214
4.10461
4.10484
4.13089
4.12885
4.12226
4.10482
4.10503
4.13091
4.1289
4.12235
4.10497
4.10516
4.13093
4.12893
4.1224
4.10506
4.10524
4.13094
4.12896
4.12244
4.10512
4.1053
4.13094
4.12898
4.12247
4.10517
4.10534
4.13095
4.12899
4.1225
4.10521
4.10537
4.13096
4.12901
4.12252
4.10525
4.10541
4.13097
4.12902
4.12254
4.10529
4.10544
4.13098
4.12904
4.12257
4.10532
4.10547
4.13098
4.12905
4.12259
4.10535
4.10549
4.13098
4.12906
4.12261
4.10538
4.10552
4.13099
4.12907
4.12262
4.1054
4.10554
4.13099
4.12908
4.12264
4.10543
4.10556
4.131
4.12909
4.12265
4.10545
4.10557
4.131
4.12909
4.12266
4.10547
4.10559
4.131
4.12909
4.12267
4.10548
4.10561
4.131
4.1291
4.12268
4.1055
4.10563
4.13101
4.12911
4.1227
4.10551
4.10563
4.13101
4.12912
4.1227
4.10553
4.10564
4.13102
4.12912
4.12271
4.10554
4.10565
4.13102
4.12913
4.12271
4.10555
4.10566
4.13102
4.12913
4.12272
4.10556
4.10567
4.13102
4.12913
4.12273
4.10557
4.10568
4.13102
4.12913
4.12273
4.10558
4.10569
4.13102
4.12914
4.12274
4.10558
4.10569
4.13102
4.12914
4.12274
4.10559
4.1057
4.13102
4.12914
4.12275
4.1056
4.10571
4.13102
4.12915
4.12275
4.1056
4.10571
4.13102
4.12915
4.12275
4.10561
4.10571
4.13181
4.13209
4.13256
4.13236
4.13197
4.13182
4.13209
4.13255
4.13235
4.13197
4.13182
4.13209
4.13255
4.13235
4.13196
4.13183
4.13209
4.13255
4.13234
4.13195
4.13184
4.1321
4.13255
4.13233
4.13193
4.13185
4.13211
4.13254
4.13232
4.13191
4.13187
4.13212
4.13254
4.13231
4.13189
4.13189
4.13213
4.13253
4.13229
4.13185
4.13192
4.13214
4.13252
4.13227
4.13181
4.13195
4.13215
4.13251
4.13224
4.13175
4.13199
4.13218
4.13249
4.1322
4.13168
4.13205
4.1322
4.13247
4.13215
4.13159
4.13212
4.13223
4.13245
4.13209
4.13147
4.13222
4.13228
4.13242
4.13201
4.13133
4.13233
4.13234
4.13238
4.13192
4.13115
4.13247
4.1324
4.13233
4.1318
4.13094
4.13264
4.13248
4.13227
4.13167
4.13069
4.13283
4.13258
4.13221
4.13153
4.13043
4.13303
4.13268
4.13216
4.1314
4.13019
4.13321
4.13278
4.13212
4.1313
4.13003
4.1333
4.13285
4.13213
4.13133
4.13011
4.13318
4.13285
4.13224
4.13163
4.1307
4.13278
4.13278
4.13254
4.13237
4.1321
4.13241
4.13286
4.13308
4.13342
4.13387
4.13258
4.1333
4.13377
4.13436
4.13519
4.13286
4.13366
4.13416
4.13476
4.13562
4.13267
4.13348
4.13396
4.13449
4.13531
4.13241
4.1332
4.13369
4.13407
4.13488
4.13255
4.13335
4.13385
4.13415
4.13497
4.1326
4.13341
4.13385
4.13418
4.13498
4.13303
4.13396
4.13384
4.13351
4.13388
4.13259
4.13406
4.13396
4.13323
4.13335
4.12988
4.13309
4.13434
4.13454
4.13504
4.12751
4.13274
4.13504
4.136
4.13674
4.12634
4.13319
4.13493
4.13575
4.13642
4.12453
4.1332
4.13465
4.13551
4.13636
4.12147
4.13253
4.1347
4.13543
4.13656
4.11776
4.13156
4.13545
4.13618
4.13685
4.11522
4.13138
4.13629
4.13678
4.13738
4.1136
4.13104
4.13647
4.13694
4.13743
4.11257
4.13064
4.13639
4.13686
4.13727
4.11193
4.13031
4.13625
4.13672
4.13708
4.11151
4.13006
4.13612
4.13659
4.13693
4.11124
4.12989
4.13603
4.13651
4.13683
4.11107
4.12977
4.13597
4.13644
4.13675
4.11096
4.1297
4.13592
4.13639
4.13669
4.11088
4.12965
4.13589
4.13636
4.13666
4.11083
4.1296
4.13586
4.13633
4.13664
4.11077
4.12956
4.13583
4.13631
4.13661
4.11072
4.12952
4.13581
4.13629
4.13659
4.11068
4.12948
4.13579
4.13627
4.13657
4.11063
4.12945
4.13577
4.13625
4.13655
4.1106
4.12943
4.13575
4.13624
4.13654
4.11057
4.12941
4.13574
4.13622
4.13652
4.11054
4.12938
4.13572
4.13621
4.1365
4.1105
4.12936
4.13571
4.13619
4.13648
4.11048
4.12934
4.1357
4.13618
4.13647
4.11045
4.12932
4.13569
4.13617
4.13646
4.11044
4.1293
4.13567
4.13616
4.13645
4.11042
4.12929
4.13567
4.13615
4.13644
4.1104
4.12927
4.13566
4.13615
4.13644
4.11038
4.12926
4.13565
4.13614
4.13643
4.11037
4.12925
4.13564
4.13613
4.13642
4.11036
4.12924
4.13563
4.13612
4.13641
4.11034
4.12923
4.13563
4.13612
4.13641
4.11034
4.12922
4.13562
4.13611
4.1364
4.11033
4.12922
4.13562
4.13611
4.13639
4.11032
4.12921
4.13562
4.13611
4.13639
4.11031
4.12921
4.13561
4.1361
4.13638
4.11031
4.1292
4.1356
4.13609
4.13638
4.1103
4.12919
4.1356
4.13609
4.13638
4.11029
4.12919
4.1356
4.13609
4.13637
4.13416
4.13569
4.13707
4.13732
4.13743
4.13416
4.1357
4.13707
4.13732
4.13743
4.13417
4.13571
4.13708
4.13733
4.13744
4.13419
4.13572
4.13708
4.13733
4.13745
4.1342
4.13573
4.1371
4.13735
4.13747
4.13422
4.13575
4.13711
4.13736
4.13749
4.13424
4.13577
4.13713
4.13738
4.13751
4.13427
4.1358
4.13715
4.1374
4.13753
4.13431
4.13583
4.13718
4.13743
4.13757
4.13436
4.13588
4.13722
4.13746
4.13761
4.13443
4.13595
4.13726
4.13751
4.13767
4.13452
4.13603
4.13733
4.13757
4.13775
4.13463
4.13613
4.13741
4.13765
4.13784
4.13477
4.13626
4.1375
4.13775
4.13797
4.13494
4.13641
4.13763
4.13787
4.13813
4.13515
4.13661
4.13778
4.13803
4.13834
4.13542
4.13685
4.13796
4.13822
4.13859
4.13573
4.13713
4.13818
4.13845
4.13889
4.13606
4.13743
4.13841
4.13873
4.13924
4.13641
4.13773
4.13865
4.13903
4.13965
4.1367
4.13796
4.13884
4.13932
4.14007
4.1368
4.13801
4.13892
4.13957
4.14045
4.13664
4.1378
4.13882
4.13968
4.14063
4.1368
4.13798
4.13918
4.14024
4.14123
4.13791
4.13915
4.14046
4.14158
4.14256
4.13903
4.14027
4.14157
4.14265
4.1436
4.13909
4.14023
4.14142
4.14242
4.14333
4.1392
4.14022
4.14142
4.14256
4.14349
4.14004
4.14102
4.14237
4.14371
4.14474
4.14006
4.141
4.14222
4.14351
4.1445
4.13997
4.14098
4.14189
4.14289
4.14375
4.14048
4.1415
4.14237
4.14324
4.14396
4.141
4.14193
4.14288
4.14378
4.14439
4.14185
4.14281
4.14383
4.1448
4.14549
4.14202
4.14299
4.14397
4.14484
4.14547
4.14257
4.14358
4.14455
4.14536
4.14596
4.14294
4.14395
4.14516
4.14591
4.14631
4.14373
4.14453
4.14546
4.14623
4.14662
4.145
4.14574
4.14656
4.14731
4.14783
4.14528
4.14601
4.14677
4.1475
4.14808
4.1451
4.14583
4.14655
4.14725
4.14784
4.14484
4.14556
4.14627
4.14693
4.14751
4.14462
4.14533
4.14602
4.14667
4.14724
4.14444
4.14515
4.14583
4.14647
4.14703
4.14432
4.14503
4.1457
4.14633
4.14689
4.14423
4.14494
4.14561
4.14623
4.14678
4.14418
4.14489
4.14556
4.14617
4.14671
4.14413
4.14484
4.14551
4.14612
4.14666
4.14409
4.1448
4.14547
4.14607
4.14661
4.14406
4.14476
4.14542
4.14602
4.14656
4.14402
4.14472
4.14538
4.14598
4.14652
4.14398
4.14469
4.14535
4.14594
4.14648
4.14395
4.14466
4.14531
4.1459
4.14644
4.14392
4.14463
4.14529
4.14588
4.1464
4.14389
4.1446
4.14526
4.14585
4.14638
4.14387
4.14458
4.14523
4.14582
4.14635
4.14385
4.14455
4.1452
4.14579
4.14632
4.14383
4.14453
4.14518
4.14577
4.14629
4.14381
4.14451
4.14516
4.14575
4.14627
4.14379
4.14449
4.14515
4.14573
4.14625
4.14378
4.14448
4.14514
4.14571
4.14623
4.14377
4.14447
4.14512
4.1457
4.14621
4.14375
4.14445
4.1451
4.14569
4.1462
4.14374
4.14444
4.14509
4.14567
4.14619
4.14374
4.14443
4.14508
4.14566
4.14617
4.14373
4.14442
4.14507
4.14564
4.14616
4.14371
4.14441
4.14506
4.14564
4.14615
4.1437
4.1444
4.14506
4.14563
4.14614
4.1437
4.1444
4.14505
4.14563
4.14614
4.14369
4.14439
4.14504
4.14562
4.14613
4.14368
4.14438
4.14503
4.14561
4.14612
4.14368
4.14438
4.14503
4.1456
4.14611
4.13864
4.14044
4.14153
4.14224
4.14277
4.13864
4.14045
4.14154
4.14225
4.14278
4.13865
4.14046
4.14156
4.14227
4.1428
4.13867
4.14048
4.14158
4.1423
4.14283
4.13869
4.1405
4.1416
4.14233
4.14288
4.13871
4.14053
4.14164
4.14237
4.14293
4.13874
4.14056
4.14168
4.14243
4.143
4.13878
4.14061
4.14174
4.14251
4.14309
4.13882
4.14067
4.14181
4.1426
4.1432
4.13889
4.14075
4.14191
4.14272
4.14334
4.13897
4.14085
4.14204
4.14287
4.14352
4.13907
4.14098
4.1422
4.14307
4.14376
4.1392
4.14114
4.14241
4.14333
4.14407
4.13937
4.14135
4.14267
4.14364
4.14445
4.13959
4.14161
4.14299
4.14404
4.14493
4.13985
4.14194
4.14339
4.14454
4.14552
4.14018
4.14233
4.14388
4.14513
4.14622
4.14058
4.14278
4.14444
4.14581
4.14703
4.14103
4.14329
4.14504
4.14655
4.1479
4.14152
4.14379
4.14563
4.14724
4.14872
4.14197
4.14418
4.14603
4.1477
4.14925
4.14223
4.14421
4.14593
4.14751
4.149
4.14204
4.14358
4.14497
4.14626
4.1475
4.14223
4.1433
4.14432
4.14522
4.14614
4.14341
4.1443
4.14521
4.14596
4.14675
4.14445
4.14537
4.14632
4.14709
4.14788
4.14418
4.14505
4.14593
4.14662
4.14737
4.14439
4.14525
4.14609
4.14682
4.14753
4.1457
4.14663
4.14752
4.14841
4.1492
4.14527
4.14609
4.14687
4.14771
4.14846
4.14457
4.14574
4.14677
4.14773
4.14871
4.14474
4.14673
4.14929
4.15099
4.15201
4.14478
4.14648
4.14853
4.14971
4.15062
4.14568
4.14714
4.1485
4.14891
4.1492
4.14564
4.14704
4.14844
4.14897
4.14978
4.1466
4.14732
4.14829
4.14843
4.14869